13
 i =  900000, E =       -1.9411044100
H           2.553417   -20.453462     6.589114
H           2.862520   -19.908734     8.154030
H           4.103995   -19.874763     6.805208
H           5.977539   -20.381358     5.541774
H           6.404929   -19.026761     6.113511
H           1.820443   -20.916067     4.619008
H           1.362307   -22.221026     5.366755
H           1.404993   -20.106370     9.522242
H           2.935752   -20.516013    10.157948
O           3.194756   -19.921838     7.124069
O           5.636546   -19.703967     6.122342
O           1.893835   -21.400266     5.455043
O           2.276869   -20.456020     9.316632
13
 i =  900080, E =       -1.9381889058
H           2.683636   -20.503973     6.506991
H           3.202412   -19.948042     8.095420
H           4.249698   -19.826120     6.559035
H           5.984268   -20.549405     5.784730
H           6.298305   -19.217272     6.511143
H           1.957714   -21.263228     4.445649
H           1.541497   -22.109063     5.596631
H           1.607610   -19.894085     9.684597
H           2.715209   -20.553419    10.165573
O           3.235462   -19.849332     7.061170
O           5.607242   -19.781582     6.104278
O           1.827542   -21.255987     5.364102
O           2.324415   -20.407694     9.382591
